22
	Energy:      29.0199998
N          0.00072       -1.62918        0.02028
C          2.48454       -1.22188        0.01540
C          3.43676       -0.19828        0.00723
C          1.13445       -0.85109        0.01409
C          3.05185        1.14031       -0.00134
C          0.71633        0.47902        0.00526
C          1.69722        1.49255       -0.00225
C         -0.71548        0.47882        0.00526
C         -2.48322       -1.22256        0.01534
C         -3.43572       -0.19923        0.00718
C         -1.13323       -0.85140        0.01406
C         -3.05118        1.13947       -0.00134
C         -1.69665        1.49208       -0.00223
H          2.78841       -2.26346        0.02207
H          4.49437       -0.45226        0.00749
H          3.80872        1.92070       -0.00762
H          1.40550        2.53835       -0.00918
H         -2.78680       -2.26422        0.02197
H         -4.49326       -0.45349        0.00741
H         -3.80826        1.91965       -0.00761
H         -1.40521        2.53796       -0.00912
H          0.00086       -2.63799        0.02745
