25
	Energy:      44.8525556
C         -0.00177        2.22252        9.71100
C         -0.00010       -0.19598       11.12207
C          0.00126        1.01409        8.97952
C          0.01863        2.21914       11.09786
C          0.07167        1.02624       11.80000
C         -0.01297       -0.19716        9.71995
H          0.01824       -1.14982        9.23319
C          0.39643        1.14903       13.18523
H          0.04382       -1.14281       11.64888
H          0.06998        3.16436       11.63260
H          0.02854        3.18156        9.23387
H          0.00686        2.03952        2.46382
H          0.00685       -0.00144        2.46383
H          0.02077        3.19718        7.19379
C          0.02036        1.01742        7.45976
C          0.02159       -0.19421        6.72092
C          0.01791       -0.18775        5.32508
C          0.01513        1.01909        4.62395
C          0.01805        2.22581        5.32535
C          0.02196        2.23149        6.72156
H          0.02063       -1.15940        7.19312
H          0.01519       -1.13321        4.79279
B          0.00908        1.01906        3.05825
H          0.01523        3.17133        4.79291
N          0.66506        1.43777       14.27126
